Program Version,EnergyPlus, Version 8.9.0-40101eaafd, YMD=2026.02.04 14:01
1,5,Environment Title[],Latitude[deg],Longitude[deg],Time Zone[],Elevation[m]
2,8,Day of Simulation[],Month[],Day of Month[],DST Indicator[1=yes 0=no],Hour[],StartMinute[],EndMinute[],DayType
3,5,Cumulative Day of Simulation[],Month[],Day of Month[],DST Indicator[1=yes 0=no],DayType  ! When Daily Report Variables Requested
4,2,Cumulative Days of Simulation[],Month[]  ! When Monthly Report Variables Requested
5,1,Cumulative Days of Simulation[] ! When Run Period Report Variables Requested
6,1,Calendar Year of Simulation[] ! When Annual Report Variables Requested
7,1,BLOCK TESTBLOCK STOREY 0,Zone Mean Air Temperature [C] !Hourly
8,1,BLOCK TESTBLOCK STOREY 1,Zone Mean Air Temperature [C] !Hourly
9,1,BLOCK TESTBLOCK STOREY 2,Zone Mean Air Temperature [C] !Hourly
End of Data Dictionary
1,INCH'ON - KOR IWEC Data WMO#=471120,  37.48, 126.55,   9.00,  70.00
2,1, 1, 1, 0, 1, 0.00,60.00,Tuesday
7,13.455076113617759
8,9.055661296826953
9,4.581221398433434
2,1, 1, 1, 0, 2, 0.00,60.00,Tuesday
7,13.35959906520675
8,8.95709135853802
9,4.42327397646391
2,1, 1, 1, 0, 3, 0.00,60.00,Tuesday
7,13.30537622542799
8,8.897382439949063
9,4.295857961702499
2,1, 1, 1, 0, 4, 0.00,60.00,Tuesday
7,13.253431762744333
8,8.839088891078305
9,4.161691495796763
2,1, 1, 1, 0, 5, 0.00,60.00,Tuesday
7,13.194703367230425
8,8.77167154939966
9,4.010043173874507
2,1, 1, 1, 0, 6, 0.00,60.00,Tuesday
7,13.1403162977707
8,8.705481692964146
9,3.8516538079780999
2,1, 1, 1, 0, 7, 0.00,60.00,Tuesday
7,13.109295799827452
8,8.658746915017013
9,3.70331949352846
2,1, 1, 1, 0, 8, 0.00,60.00,Tuesday
7,13.083626823991848
8,8.615232296687149
9,3.552074078690099
2,1, 1, 1, 0, 9, 0.00,60.00,Tuesday
7,13.11068716337819
8,8.62101587508256
9,3.451157120931189
2,1, 1, 1, 0,10, 0.00,60.00,Tuesday
7,13.380576129692104
8,8.860242125821822
9,3.593257185224594
2,1, 1, 1, 0,11, 0.00,60.00,Tuesday
7,13.634331013762399
8,9.099874200557814
9,3.770288828992596
2,1, 1, 1, 0,12, 0.00,60.00,Tuesday
7,13.928431335478175
8,9.375790340965497
9,3.9956870857908854
2,1, 1, 1, 0,13, 0.00,60.00,Tuesday
7,14.238398589619394
8,9.652479710208642
9,4.275320554216512
2,1, 1, 1, 0,14, 0.00,60.00,Tuesday
7,14.445944771187867
8,9.862839007464928
9,4.556969862198913
2,1, 1, 1, 0,15, 0.00,60.00,Tuesday
7,14.528080138782297
8,9.957144542785294
9,4.7853278920395179
2,1, 1, 1, 0,16, 0.00,60.00,Tuesday
7,14.393502632411176
8,9.82037690294835
9,4.815399661054015
2,1, 1, 1, 0,17, 0.00,60.00,Tuesday
7,14.087127242113219
8,9.526909912765773
9,4.6770756568720419
2,1, 1, 1, 0,18, 0.00,60.00,Tuesday
7,13.864938522485013
8,9.314949243142842
9,4.636314669567029
2,1, 1, 1, 0,19, 0.00,60.00,Tuesday
7,13.76225094175267
8,9.220550504552696
9,4.6945943255804
2,1, 1, 1, 0,20, 0.00,60.00,Tuesday
7,13.705354355453979
8,9.171659861053094
9,4.7437062625905839
2,1, 1, 1, 0,21, 0.00,60.00,Tuesday
7,13.644344663507728
8,9.116842376622204
9,4.738170536256477
2,1, 1, 1, 0,22, 0.00,60.00,Tuesday
7,13.58039982319527
8,9.061807217214638
9,4.70188872290405
2,1, 1, 1, 0,23, 0.00,60.00,Tuesday
7,13.525626096052415
8,9.016388238878643
9,4.649150985585877
2,1, 1, 1, 0,24, 0.00,60.00,Tuesday
7,13.475277780434907
8,8.973627188355187
9,4.575926207264539
2,2, 1, 2, 0, 1, 0.00,60.00,Wednesday
7,13.434300054411978
8,8.936385633943634
9,4.490564990752353
2,2, 1, 2, 0, 2, 0.00,60.00,Wednesday
7,13.397189123092021
8,8.901035232722464
9,4.399636540175884
2,2, 1, 2, 0, 3, 0.00,60.00,Wednesday
7,13.361645909643708
8,8.865576884059955
9,4.305542872116723
2,2, 1, 2, 0, 4, 0.00,60.00,Wednesday
7,13.338547218991211
8,8.837221538816499
9,4.216816924697214
2,2, 1, 2, 0, 5, 0.00,60.00,Wednesday
7,13.322220066769765
8,8.81283699450493
9,4.134897727507233
2,2, 1, 2, 0, 6, 0.00,60.00,Wednesday
7,13.31225117993816
8,8.791888417997095
9,4.060978646900614
2,2, 1, 2, 0, 7, 0.00,60.00,Wednesday
7,13.289689325314346
8,8.763027040154793
9,3.991495370898613
2,2, 1, 2, 0, 8, 0.00,60.00,Wednesday
7,13.270438188415972
8,8.737534248222069
9,3.933823906777469
2,2, 1, 2, 0, 9, 0.00,60.00,Wednesday
7,13.261865918425917
8,8.720315844674547
9,3.8910624931221684
2,2, 1, 2, 0,10, 0.00,60.00,Wednesday
7,13.283144991041157
8,8.728201663621336
9,3.881256590028188
2,2, 1, 2, 0,11, 0.00,60.00,Wednesday
7,13.32876877284623
8,8.75840912135
9,3.9049257317248799
2,2, 1, 2, 0,12, 0.00,60.00,Wednesday
7,13.377016671790953
8,8.791692930876645
9,3.9459078152862885
2,2, 1, 2, 0,13, 0.00,60.00,Wednesday
7,13.462975662100942
8,8.863085007423664
9,4.043638589660448
2,2, 1, 2, 0,14, 0.00,60.00,Wednesday
7,13.573426430247308
8,8.960061834986476
9,4.186754584329904
2,2, 1, 2, 0,15, 0.00,60.00,Wednesday
7,13.680727741509413
8,9.055673150127792
9,4.361698339143128
2,2, 1, 2, 0,16, 0.00,60.00,Wednesday
7,13.634717075211532
8,9.011581826632423
9,4.4193832526428828
2,2, 1, 2, 0,17, 0.00,60.00,Wednesday
7,13.507537817497714
8,8.88676206368387
9,4.414042705055279
2,2, 1, 2, 0,18, 0.00,60.00,Wednesday
7,13.417722722070243
8,8.795355037764665
9,4.444069966437145
2,2, 1, 2, 0,19, 0.00,60.00,Wednesday
7,13.390234232412086
8,8.765548948318914
9,4.527459560248427
2,2, 1, 2, 0,20, 0.00,60.00,Wednesday
7,13.379880504214614
8,8.754020130505986
9,4.614827838476307
2,2, 1, 2, 0,21, 0.00,60.00,Wednesday
7,13.363841417023116
8,8.737429228512444
9,4.679379555795057
2,2, 1, 2, 0,22, 0.00,60.00,Wednesday
7,13.343350917167145
8,8.718573403959916
9,4.727526407984584
2,2, 1, 2, 0,23, 0.00,60.00,Wednesday
7,13.322470218069676
8,8.701169139026485
9,4.7667110185871899
2,2, 1, 2, 0,24, 0.00,60.00,Wednesday
7,13.306598149388135
8,8.687968744492962
9,4.802836420365658
2,3, 1, 3, 0, 1, 0.00,60.00,Thursday
7,13.240055998580923
8,8.625028430215716
9,4.7888624371076189
2,3, 1, 3, 0, 2, 0.00,60.00,Thursday
7,13.148810494560589
8,8.535682870516944
9,4.740153372121738
2,3, 1, 3, 0, 3, 0.00,60.00,Thursday
7,13.056116621772924
8,8.443032596847197
9,4.675484459128292
2,3, 1, 3, 0, 4, 0.00,60.00,Thursday
7,12.987433298005217
8,8.373766564329858
9,4.619421863967856
2,3, 1, 3, 0, 5, 0.00,60.00,Thursday
7,12.922846261759857
8,8.308863212475027
9,4.550246373214306
2,3, 1, 3, 0, 6, 0.00,60.00,Thursday
7,12.851970873245853
8,8.23739507148672
9,4.453901490880236
2,3, 1, 3, 0, 7, 0.00,60.00,Thursday
7,12.791447443838348
8,8.175043870515755
9,4.344589613465627
2,3, 1, 3, 0, 8, 0.00,60.00,Thursday
7,12.739183266102419
8,8.119922706633324
9,4.22248784766377
2,3, 1, 3, 0, 9, 0.00,60.00,Thursday
7,12.710211531139044
8,8.085948367619228
9,4.107982858507186
2,3, 1, 3, 0,10, 0.00,60.00,Thursday
7,12.849273651072569
8,8.214975023317024
9,4.152166280544148
2,3, 1, 3, 0,11, 0.00,60.00,Thursday
7,13.088871530880562
8,8.443935561284098
9,4.28878995433328
2,3, 1, 3, 0,12, 0.00,60.00,Thursday
7,13.350787550307416
8,8.691875462247049
9,4.471636276999355
2,3, 1, 3, 0,13, 0.00,60.00,Thursday
7,13.58204095900006
8,8.927392587218659
9,4.643905099698587
2,3, 1, 3, 0,14, 0.00,60.00,Thursday
7,13.645529231823876
8,9.002213304850903
9,4.671708267976197
2,3, 1, 3, 0,15, 0.00,60.00,Thursday
7,13.589635133618105
8,8.957879654148883
9,4.597296029682049
2,3, 1, 3, 0,16, 0.00,60.00,Thursday
7,13.49499794405121
8,8.872329638999432
9,4.491531415197688
2,3, 1, 3, 0,17, 0.00,60.00,Thursday
7,13.312138841931852
8,8.698315991140376
9,4.2944363546096488
2,3, 1, 3, 0,18, 0.00,60.00,Thursday
7,13.139248902593755
8,8.528451643982806
9,4.089418019361594
2,3, 1, 3, 0,19, 0.00,60.00,Thursday
7,13.0487380535406
8,8.437374584746966
9,3.9512763835234696
2,3, 1, 3, 0,20, 0.00,60.00,Thursday
7,13.001682627585759
8,8.388670117534585
9,3.8384400618016638
2,3, 1, 3, 0,21, 0.00,60.00,Thursday
7,12.9557518915224
8,8.338738006610507
9,3.7029662246467169
2,3, 1, 3, 0,22, 0.00,60.00,Thursday
7,12.896946173712119
8,8.2753412349698
9,3.546051268318478
2,3, 1, 3, 0,23, 0.00,60.00,Thursday
7,12.837484189540133
8,8.20882596468161
9,3.3766517458072289
2,3, 1, 3, 0,24, 0.00,60.00,Thursday
7,12.78305726849994
8,8.144399821195295
9,3.200735702672372
2,4, 1, 4, 0, 1, 0.00,60.00,Friday
7,12.73644260965155
8,8.08359430629965
9,3.020283634001261
2,4, 1, 4, 0, 2, 0.00,60.00,Friday
7,12.692412269530598
8,8.022410042042003
9,2.835997397540643
2,4, 1, 4, 0, 3, 0.00,60.00,Friday
7,12.648685195165286
8,7.959108603139772
9,2.6497425287861926
2,4, 1, 4, 0, 4, 0.00,60.00,Friday
7,12.601029498568158
8,7.890342242052315
9,2.462102887383704
2,4, 1, 4, 0, 5, 0.00,60.00,Friday
7,12.553585408688156
8,7.819521837604661
9,2.275190932516642
2,4, 1, 4, 0, 6, 0.00,60.00,Friday
7,12.506413254467276
8,7.746660346451755
9,2.0881933865533548
2,4, 1, 4, 0, 7, 0.00,60.00,Friday
7,12.472916752350109
8,7.682863649328024
9,1.9068796381707665
2,4, 1, 4, 0, 8, 0.00,60.00,Friday
7,12.447050431353235
8,7.625140386529952
9,1.7315977089190989
2,4, 1, 4, 0, 9, 0.00,60.00,Friday
7,12.474371012541689
8,7.620254839571699
9,1.6169040778543007
2,4, 1, 4, 0,10, 0.00,60.00,Friday
7,12.758688385145869
8,7.862701145859714
9,1.7590842961196254
2,4, 1, 4, 0,11, 0.00,60.00,Friday
7,13.019394809152566
8,8.097904616604442
9,1.9413058038234646
2,4, 1, 4, 0,12, 0.00,60.00,Friday
7,13.319093433625165
8,8.365385822577438
9,2.1652921402861349
2,4, 1, 4, 0,13, 0.00,60.00,Friday
7,13.644171717044035
8,8.644473836097874
9,2.449030780830673
2,4, 1, 4, 0,14, 0.00,60.00,Friday
7,13.871417423612176
8,8.860992248221577
9,2.7440122248898799
2,4, 1, 4, 0,15, 0.00,60.00,Friday
7,13.971935156929778
8,8.960006140132557
9,2.993654135258308
2,4, 1, 4, 0,16, 0.00,60.00,Friday
7,13.920665320395715
8,8.893779016442914
9,3.143252605136312
2,4, 1, 4, 0,17, 0.00,60.00,Friday
7,13.657230922470819
8,8.62738885705542
9,3.109463222598056
2,4, 1, 4, 0,18, 0.00,60.00,Friday
7,13.368704789427009
8,8.344116578015747
9,3.0469559970696715
2,4, 1, 4, 0,19, 0.00,60.00,Friday
7,13.249687493144079
8,8.229552203774654
9,3.1203193766515029
2,4, 1, 4, 0,20, 0.00,60.00,Friday
7,13.211828733036562
8,8.19709848044064
9,3.235171055909916
2,4, 1, 4, 0,21, 0.00,60.00,Friday
7,13.173819438188355
8,8.163897312770926
9,3.3032984937084017
2,4, 1, 4, 0,22, 0.00,60.00,Friday
7,13.12142801522789
8,8.11618489169445
9,3.316511338510262
2,4, 1, 4, 0,23, 0.00,60.00,Friday
7,13.079026935155838
8,8.076521093364816
9,3.3100341522015968
2,4, 1, 4, 0,24, 0.00,60.00,Friday
7,13.041139790757854
8,8.041636405495313
9,3.2914359872610845
2,5, 1, 5, 0, 1, 0.00,60.00,Saturday
7,13.00559669092727
8,8.008513281485826
9,3.263295441509441
2,5, 1, 5, 0, 2, 0.00,60.00,Saturday
7,12.967614645193637
8,7.971912731442951
9,3.22496513908494
2,5, 1, 5, 0, 3, 0.00,60.00,Saturday
7,12.936275902118343
8,7.940336342637823
9,3.1874258022293979
2,5, 1, 5, 0, 4, 0.00,60.00,Saturday
7,12.902578867968823
8,7.905364507302886
9,3.1446114517827028
2,5, 1, 5, 0, 5, 0.00,60.00,Saturday
7,12.874108308168067
8,7.873442797450134
9,3.103415229533528
2,5, 1, 5, 0, 6, 0.00,60.00,Saturday
7,12.849291364124245
8,7.843959236546291
9,3.064043798674658
2,5, 1, 5, 0, 7, 0.00,60.00,Saturday
7,12.828025424736767
8,7.819121626728534
9,3.0297180378006969
2,5, 1, 5, 0, 8, 0.00,60.00,Saturday
7,12.807264183217266
8,7.794345516602016
9,2.994995056473179
2,5, 1, 5, 0, 9, 0.00,60.00,Saturday
7,12.795758752411434
8,7.7775592690535089
9,2.968289289984197
2,5, 1, 5, 0,10, 0.00,60.00,Saturday
7,12.805707201005927
8,7.780422787691174
9,2.9633649960917687
2,5, 1, 5, 0,11, 0.00,60.00,Saturday
7,12.83201919195549
8,7.798911523524469
9,2.9791499466234785
2,5, 1, 5, 0,12, 0.00,60.00,Saturday
7,12.750482019613106
8,7.756580638089894
9,2.9802880448276549
2,5, 1, 5, 0,13, 0.00,60.00,Saturday
7,12.836678105424828
8,7.809294341811516
9,3.0281564714194655
2,5, 1, 5, 0,14, 0.00,60.00,Saturday
7,12.9009016732249
8,7.847858342235178
9,3.0740078876396335
2,5, 1, 5, 0,15, 0.00,60.00,Saturday
7,12.818289651087515
8,7.806300663883437
9,3.1014461731768936
2,5, 1, 5, 0,16, 0.00,60.00,Saturday
7,12.815957219112216
8,7.77452141927329
9,3.0994209346685799
2,5, 1, 5, 0,17, 0.00,60.00,Saturday
7,12.79804495426025
8,7.729474969949885
9,3.0855436845234935
2,5, 1, 5, 0,18, 0.00,60.00,Saturday
7,12.667541435197258
8,7.644873407421106
9,3.089175569351598
2,5, 1, 5, 0,19, 0.00,60.00,Saturday
7,12.68238899502974
8,7.627468324444715
9,3.099005912426094
2,5, 1, 5, 0,20, 0.00,60.00,Saturday
7,12.69757205068293
8,7.619505291432354
9,3.115322481274053
2,5, 1, 5, 0,21, 0.00,60.00,Saturday
7,12.676982994502036
8,7.598396506308964
9,3.128607011558518
2,5, 1, 5, 0,22, 0.00,60.00,Saturday
7,12.666964488963626
8,7.5850551830569439
9,3.1386760140813445
2,5, 1, 5, 0,23, 0.00,60.00,Saturday
7,12.670280315208375
8,7.580599158229716
9,3.145079388058912
2,5, 1, 5, 0,24, 0.00,60.00,Saturday
7,12.674645674616392
8,7.577095800427476
9,3.146354015150884
2,6, 1, 6, 0, 1, 0.00,60.00,Sunday
7,12.652065750083205
8,7.55269222099573
9,3.1297127327345168
2,6, 1, 6, 0, 2, 0.00,60.00,Sunday
7,12.616639004507944
8,7.516754313852268
9,3.1029903263830818
2,6, 1, 6, 0, 3, 0.00,60.00,Sunday
7,12.58430215424806
8,7.482474751792079
9,3.076220628361881
2,6, 1, 6, 0, 4, 0.00,60.00,Sunday
7,12.566979886689796
8,7.460657056916544
9,3.0585869610512566
2,6, 1, 6, 0, 5, 0.00,60.00,Sunday
7,12.55122618421319
8,7.440584832610261
9,3.0417175904138018
2,6, 1, 6, 0, 6, 0.00,60.00,Sunday
7,12.533824835609265
8,7.418931011105332
9,3.0228742214303709
2,6, 1, 6, 0, 7, 0.00,60.00,Sunday
7,12.514304760124509
8,7.395753836326086
9,3.002601145224329
2,6, 1, 6, 0, 8, 0.00,60.00,Sunday
7,12.494339162136399
8,7.37190751984371
9,2.9809572328868008
2,6, 1, 6, 0, 9, 0.00,60.00,Sunday
7,12.482272999479147
8,7.3556414468418709
9,2.966446053011464
2,6, 1, 6, 0,10, 0.00,60.00,Sunday
7,12.539765005915271
8,7.40632865853816
9,3.017906065399368
2,6, 1, 6, 0,11, 0.00,60.00,Sunday
7,12.65702401212129
8,7.516918566020631
9,3.132215230252862
2,6, 1, 6, 0,12, 0.00,60.00,Sunday
7,12.824549574845662
8,7.676538649569091
9,3.306399743517472
2,6, 1, 6, 0,13, 0.00,60.00,Sunday
7,13.044715110217565
8,7.882180805852585
9,3.569342089104755
2,6, 1, 6, 0,14, 0.00,60.00,Sunday
7,13.27451642190966
8,8.117988146671643
9,3.890432241736348
2,6, 1, 6, 0,15, 0.00,60.00,Sunday
7,13.548436632482062
8,8.418051334197154
9,4.339397341474658
2,6, 1, 6, 0,16, 0.00,60.00,Sunday
7,13.62898146997415
8,8.513327665387863
9,4.589262871841662
2,6, 1, 6, 0,17, 0.00,60.00,Sunday
7,13.44179951961222
8,8.327802623268202
9,4.55272286871097
2,6, 1, 6, 0,18, 0.00,60.00,Sunday
7,13.206634175033364
8,8.112239367303673
9,4.482035975602387
2,6, 1, 6, 0,19, 0.00,60.00,Sunday
7,13.095193654181897
8,8.022867989821576
9,4.533042855849525
2,6, 1, 6, 0,20, 0.00,60.00,Sunday
7,13.047086062511023
8,7.9959016678441119
9,4.627367002790996
2,6, 1, 6, 0,21, 0.00,60.00,Sunday
7,12.99565860057217
8,7.964257657031459
9,4.679847332348805
2,6, 1, 6, 0,22, 0.00,60.00,Sunday
7,12.95865141429043
8,7.9479973398050769
9,4.7129417552169789
2,6, 1, 6, 0,23, 0.00,60.00,Sunday
7,12.936240388506
8,7.947040075228169
9,4.733517396376704
2,6, 1, 6, 0,24, 0.00,60.00,Sunday
7,12.915501351710074
8,7.947801520995617
9,4.731914444780197
2,7, 1, 7, 0, 1, 0.00,60.00,Monday
7,12.887974824346824
8,7.940730856843735
9,4.700503710115147
2,7, 1, 7, 0, 2, 0.00,60.00,Monday
7,12.858312943527335
8,7.93069116360321
9,4.649191484034735
2,7, 1, 7, 0, 3, 0.00,60.00,Monday
7,12.830843586901132
8,7.921254403978824
9,4.588057631071215
2,7, 1, 7, 0, 4, 0.00,60.00,Monday
7,12.82366896565219
8,7.928954928371603
9,4.5379687633014129
2,7, 1, 7, 0, 5, 0.00,60.00,Monday
7,12.82039024283135
8,7.939279873719781
9,4.487502098537974
2,7, 1, 7, 0, 6, 0.00,60.00,Monday
7,12.82147471753195
8,7.9521196252583918
9,4.437978165785647
2,7, 1, 7, 0, 7, 0.00,60.00,Monday
7,12.818402384981749
8,7.957639076761947
9,4.3824851584166659
2,7, 1, 7, 0, 8, 0.00,60.00,Monday
7,12.812627299099417
8,7.95799530091696
9,4.325815139318505
2,7, 1, 7, 0, 9, 0.00,60.00,Monday
7,12.8192960218622
8,7.9681145201834309
9,4.28387631374054
2,7, 1, 7, 0,10, 0.00,60.00,Monday
7,12.867513428999779
8,8.020256101131583
9,4.293924005082498
2,7, 1, 7, 0,11, 0.00,60.00,Monday
7,12.940387012046316
8,8.097448339983908
9,4.337087856287874
2,7, 1, 7, 0,12, 0.00,60.00,Monday
7,13.0119972574563
8,8.173596528822993
9,4.3858328264743779
2,7, 1, 7, 0,13, 0.00,60.00,Monday
7,13.041608751982722
8,8.2105973471316
9,4.420456561864603
2,7, 1, 7, 0,14, 0.00,60.00,Monday
7,13.046495784715946
8,8.221590537160925
9,4.453940539394256
2,7, 1, 7, 0,15, 0.00,60.00,Monday
7,13.032627888916866
8,8.214133688185456
9,4.489059234190109
2,7, 1, 7, 0,16, 0.00,60.00,Monday
7,13.00196714843718
8,8.188660069342785
9,4.517047176087236
2,7, 1, 7, 0,17, 0.00,60.00,Monday
7,12.957760159887334
8,8.14931052586377
9,4.534378882458425
2,7, 1, 7, 0,18, 0.00,60.00,Monday
7,12.914391011262567
8,8.110132054357989
9,4.5479026766933139
2,7, 1, 7, 0,19, 0.00,60.00,Monday
7,12.885685858645772
8,8.089145258200438
9,4.574019039842702
2,7, 1, 7, 0,20, 0.00,60.00,Monday
7,12.864377890403642
8,8.077160672882839
9,4.596812248546831
2,7, 1, 7, 0,21, 0.00,60.00,Monday
7,12.84400433128433
8,8.065125184122064
9,4.603815970680709
2,7, 1, 7, 0,22, 0.00,60.00,Monday
7,12.828602788185421
8,8.052854781417507
9,4.594349746400716
2,7, 1, 7, 0,23, 0.00,60.00,Monday
7,12.815970748649518
8,8.041633403534512
9,4.57536494875535
2,7, 1, 7, 0,24, 0.00,60.00,Monday
7,12.807388971507447
8,8.033770659895012
9,4.55247689448451
2,8, 1, 8, 0, 1, 0.00,60.00,Tuesday
7,12.749818766291462
8,7.98647236523035
9,4.492713247891111
2,8, 1, 8, 0, 2, 0.00,60.00,Tuesday
7,12.676688173929233
8,7.921981807088369
9,4.40993781852315
2,8, 1, 8, 0, 3, 0.00,60.00,Tuesday
7,12.604709438327613
8,7.8543801251022169
9,4.314253356070765
2,8, 1, 8, 0, 4, 0.00,60.00,Tuesday
7,12.553464756078185
8,7.801370672921014
9,4.2211598293387999
2,8, 1, 8, 0, 5, 0.00,60.00,Tuesday
7,12.512914761675914
8,7.756742036097556
9,4.125125481871108
2,8, 1, 8, 0, 6, 0.00,60.00,Tuesday
7,12.46907435251665
8,7.707466363993062
9,4.012119332610366
2,8, 1, 8, 0, 7, 0.00,60.00,Tuesday
7,12.417361933169428
8,7.651683340061141
9,3.8820794009665375
2,8, 1, 8, 0, 8, 0.00,60.00,Tuesday
7,12.360566834548886
8,7.590060919850596
9,3.7361894421694199
2,8, 1, 8, 0, 9, 0.00,60.00,Tuesday
7,12.33721292258603
8,7.558625740092528
9,3.6142233935011904
2,8, 1, 8, 0,10, 0.00,60.00,Tuesday
7,12.538487854633902
8,7.745915306757393
9,3.708039207954994
2,8, 1, 8, 0,11, 0.00,60.00,Tuesday
7,12.812188933314195
8,8.007017102011389
9,3.8800509683423938
2,8, 1, 8, 0,12, 0.00,60.00,Tuesday
7,13.081513474903336
8,8.268639227054044
9,4.06619047866871
2,8, 1, 8, 0,13, 0.00,60.00,Tuesday
7,13.352819060606413
8,8.538991248084779
9,4.267663969504884
2,8, 1, 8, 0,14, 0.00,60.00,Tuesday
7,13.552752341745514
8,8.74192804795921
9,4.422322581321143
2,8, 1, 8, 0,15, 0.00,60.00,Tuesday
7,13.638105064813793
8,8.832053090899827
9,4.488501046057562
2,8, 1, 8, 0,16, 0.00,60.00,Tuesday
7,13.613937892877578
8,8.824157522920349
9,4.4604356786077699
2,8, 1, 8, 0,17, 0.00,60.00,Tuesday
7,13.369365315495017
8,8.60446314049167
9,4.235776529956398
2,8, 1, 8, 0,18, 0.00,60.00,Tuesday
7,13.083137303407606
8,8.33285748484712
9,3.9468584713580339
2,8, 1, 8, 0,19, 0.00,60.00,Tuesday
7,12.94385859035306
8,8.198946994704543
9,3.775840048198401
2,8, 1, 8, 0,20, 0.00,60.00,Tuesday
7,12.891106729230373
8,8.152562962209567
9,3.6726439471808405
2,8, 1, 8, 0,21, 0.00,60.00,Tuesday
7,12.837550016475987
8,8.103802746741609
9,3.5464351974843257
2,8, 1, 8, 0,22, 0.00,60.00,Tuesday
7,12.778143891168645
8,8.046339541373998
9,3.3970009616896559
2,8, 1, 8, 0,23, 0.00,60.00,Tuesday
7,12.722102995297677
8,7.988651347340839
9,3.236916603353405
2,8, 1, 8, 0,24, 0.00,60.00,Tuesday
7,12.673054857761305
8,7.934744305511959
9,3.074932018712328
2,9, 1, 9, 0, 1, 0.00,60.00,Wednesday
7,12.6233067085803
8,7.873362152498166
9,2.899667080367389
2,9, 1, 9, 0, 2, 0.00,60.00,Wednesday
7,12.572098527719298
8,7.805211230568718
9,2.716039064852908
2,9, 1, 9, 0, 3, 0.00,60.00,Wednesday
7,12.530856022219968
8,7.743108047268443
9,2.5366131480771756
2,9, 1, 9, 0, 4, 0.00,60.00,Wednesday
7,12.487941556051153
8,7.68304526960728
9,2.3665904705852167
2,9, 1, 9, 0, 5, 0.00,60.00,Wednesday
7,12.444941545173148
8,7.623072751662627
9,2.198661864902449
2,9, 1, 9, 0, 6, 0.00,60.00,Wednesday
7,12.40275771240421
8,7.560248422195833
9,2.0279868120758817
2,9, 1, 9, 0, 7, 0.00,60.00,Wednesday
7,12.37929339864932
8,7.508960563074112
9,1.8633411476061824
2,9, 1, 9, 0, 8, 0.00,60.00,Wednesday
7,12.366988704525662
8,7.465584731196293
9,1.7055446480457906
2,9, 1, 9, 0, 9, 0.00,60.00,Wednesday
7,12.41523418699548
8,7.4808551367036559
9,1.613643660064476
2,9, 1, 9, 0,10, 0.00,60.00,Wednesday
7,12.682489900011034
8,7.709996008236128
9,1.7547810226499248
2,9, 1, 9, 0,11, 0.00,60.00,Wednesday
7,12.964942970601762
8,7.96708868433023
9,1.952659052825822
2,9, 1, 9, 0,12, 0.00,60.00,Wednesday
7,13.225485998305843
8,8.200194826524731
9,2.164517441526062
2,9, 1, 9, 0,13, 0.00,60.00,Wednesday
7,13.516436134837484
8,8.451624664534514
9,2.430431546410582
2,9, 1, 9, 0,14, 0.00,60.00,Wednesday
7,13.722468246661795
8,8.649273988067505
9,2.7117519475503588
2,9, 1, 9, 0,15, 0.00,60.00,Wednesday
7,13.811524081807923
8,8.735295873592607
9,2.936032053456865
2,9, 1, 9, 0,16, 0.00,60.00,Wednesday
7,13.777132683999343
8,8.688672177745401
9,3.0643842589975569
2,9, 1, 9, 0,17, 0.00,60.00,Wednesday
7,13.522065259755659
8,8.442742388024536
9,3.011942339918154
2,9, 1, 9, 0,18, 0.00,60.00,Wednesday
7,13.260378055104934
8,8.19432745179774
9,2.9024925007853419
2,9, 1, 9, 0,19, 0.00,60.00,Wednesday
7,13.113250878532094
8,8.050560052146294
9,2.903366017421268
2,9, 1, 9, 0,20, 0.00,60.00,Wednesday
7,13.039692197699296
8,7.977864912527662
9,2.9461653791785529
2,9, 1, 9, 0,21, 0.00,60.00,Wednesday
7,12.993775688658883
8,7.9326651819074709
9,2.9557951846409118
2,9, 1, 9, 0,22, 0.00,60.00,Wednesday
7,12.928579923053036
8,7.868753570499055
9,2.9072420119274424
2,9, 1, 9, 0,23, 0.00,60.00,Wednesday
7,12.852190795073856
8,7.792643477234505
9,2.823026759992409
2,9, 1, 9, 0,24, 0.00,60.00,Wednesday
7,12.783281181292452
8,7.722029215320698
9,2.724600892636231
2,10, 1,10, 0, 1, 0.00,60.00,Thursday
7,12.728083073060918
8,7.665550267576602
9,2.6259608811502597
2,10, 1,10, 0, 2, 0.00,60.00,Thursday
7,12.67314358496137
8,7.609060805987493
9,2.5157521396175577
2,10, 1,10, 0, 3, 0.00,60.00,Thursday
7,12.620000062121722
8,7.552105648100522
9,2.394776252169385
2,10, 1,10, 0, 4, 0.00,60.00,Thursday
7,12.568462557230302
8,7.493205169737352
9,2.2642866663024234
2,10, 1,10, 0, 5, 0.00,60.00,Thursday
7,12.519269772154248
8,7.434309529894002
9,2.1306033352944335
2,10, 1,10, 0, 6, 0.00,60.00,Thursday
7,12.470080706363908
8,7.373480922847474
9,1.9937823693608974
2,10, 1,10, 0, 7, 0.00,60.00,Thursday
7,12.438503008409942
8,7.325761584615311
9,1.8651233053355885
2,10, 1,10, 0, 8, 0.00,60.00,Thursday
7,12.412920359412102
8,7.281073914893619
9,1.7364248464645429
2,10, 1,10, 0, 9, 0.00,60.00,Thursday
7,12.4494839050339
8,7.295556557136284
9,1.6690140752166223
2,10, 1,10, 0,10, 0.00,60.00,Thursday
7,12.71847087050723
8,7.535746978224358
9,1.8433586683624906
2,10, 1,10, 0,11, 0.00,60.00,Thursday
7,13.011063031963925
8,7.8156053410525498
9,2.072501737563675
2,10, 1,10, 0,12, 0.00,60.00,Thursday
7,13.278853734144115
8,8.069267674159134
9,2.3122596413181788
2,10, 1,10, 0,13, 0.00,60.00,Thursday
7,13.565684321840774
8,8.321757171814039
9,2.600500267284568
2,10, 1,10, 0,14, 0.00,60.00,Thursday
7,13.798056469637502
8,8.564721278527923
9,2.9383358666293786
2,10, 1,10, 0,15, 0.00,60.00,Thursday
7,13.887860348252572
8,8.66586258532053
9,3.200294538725706
2,10, 1,10, 0,16, 0.00,60.00,Thursday
7,13.850713452122364
8,8.628482248646615
9,3.371187101907027
2,10, 1,10, 0,17, 0.00,60.00,Thursday
7,13.609033142414207
8,8.397493380704065
9,3.331300156508757
2,10, 1,10, 0,18, 0.00,60.00,Thursday
7,13.34566572560216
8,8.153947304407638
9,3.231593114112612
2,10, 1,10, 0,19, 0.00,60.00,Thursday
7,13.19102342834223
8,8.013316637023412
9,3.2480047979568789
2,10, 1,10, 0,20, 0.00,60.00,Thursday
7,13.111017702776318
8,7.946533915216932
9,3.313417057139351
2,10, 1,10, 0,21, 0.00,60.00,Thursday
7,13.057717290235646
8,7.904454563176746
9,3.3398704184876717
2,10, 1,10, 0,22, 0.00,60.00,Thursday
7,13.00306104634167
8,7.8605224602977519
9,3.3162352523292686
2,10, 1,10, 0,23, 0.00,60.00,Thursday
7,12.948914114664163
8,7.815739182068193
9,3.2605100044504846
2,10, 1,10, 0,24, 0.00,60.00,Thursday
7,12.897987687243715
8,7.7738075934109729
9,3.1859463153397349
2,11, 1,11, 0, 1, 0.00,60.00,Friday
7,12.847083190218875
8,7.731150675109844
9,3.09403206061015
2,11, 1,11, 0, 2, 0.00,60.00,Friday
7,12.794863652469943
8,7.685251246631057
9,2.983911383403807
2,11, 1,11, 0, 3, 0.00,60.00,Friday
7,12.74567589828623
8,7.639856457961899
9,2.8628976355549686
2,11, 1,11, 0, 4, 0.00,60.00,Friday
7,12.699253520226087
8,7.595130185219241
9,2.734452253423892
2,11, 1,11, 0, 5, 0.00,60.00,Friday
7,12.65390372016168
8,7.549227847096442
9,2.5998010878589374
2,11, 1,11, 0, 6, 0.00,60.00,Friday
7,12.609813622523982
8,7.501920564740919
9,2.4602365383646624
2,11, 1,11, 0, 7, 0.00,60.00,Friday
7,12.578690419598136
8,7.465240386382545
9,2.3297570862797345
2,11, 1,11, 0, 8, 0.00,60.00,Friday
7,12.554674406369239
8,7.433709430273093
9,2.202740890095472
2,11, 1,11, 0, 9, 0.00,60.00,Friday
7,12.588307914780869
8,7.4563046234425969
9,2.135166113607251
2,11, 1,11, 0,10, 0.00,60.00,Friday
7,12.726355858619764
8,7.5810285194062019
9,2.177458737453003
2,11, 1,11, 0,11, 0.00,60.00,Friday
7,12.838748126319466
8,7.682677396634904
9,2.2106201001174159
2,11, 1,11, 0,12, 0.00,60.00,Friday
7,12.847319439228507
8,7.6824822091536328
9,2.1652552701180198
2,11, 1,11, 0,13, 0.00,60.00,Friday
7,12.856796915171742
8,7.681703403831581
9,2.1592248484090494
2,11, 1,11, 0,14, 0.00,60.00,Friday
7,12.891985485861256
8,7.708407367453642
9,2.219737636473932
2,11, 1,11, 0,15, 0.00,60.00,Friday
7,12.902446488344593
8,7.713190795701532
9,2.2873771322658489
2,11, 1,11, 0,16, 0.00,60.00,Friday
7,12.929574670265886
8,7.729677731766479
9,2.3840927890169048
2,11, 1,11, 0,17, 0.00,60.00,Friday
7,12.896783621948158
8,7.68747450286824
9,2.4332811380728609
2,11, 1,11, 0,18, 0.00,60.00,Friday
7,12.776506056021893
8,7.55960989267139
9,2.395341797453691
2,11, 1,11, 0,19, 0.00,60.00,Friday
7,12.679955697845369
8,7.458241005195682
9,2.3812784931849069
2,11, 1,11, 0,20, 0.00,60.00,Friday
7,12.624994921585007
8,7.400373736529665
9,2.3967656802452645
2,11, 1,11, 0,21, 0.00,60.00,Friday
7,12.576353172033473
8,7.348447976483413
9,2.3942807506623109
2,11, 1,11, 0,22, 0.00,60.00,Friday
7,12.534541640023109
8,7.29913929411246
9,2.3675076129864678
2,11, 1,11, 0,23, 0.00,60.00,Friday
7,12.50129463468145
8,7.256179961462687
9,2.326818806204729
2,11, 1,11, 0,24, 0.00,60.00,Friday
7,12.468132453003447
8,7.213310934685075
9,2.2730226233799937
2,12, 1,12, 0, 1, 0.00,60.00,Saturday
7,12.41996521019919
8,7.157060172219077
9,2.196417777594188
2,12, 1,12, 0, 2, 0.00,60.00,Saturday
7,12.364845745534405
8,7.0935677320206269
9,2.103168782648296
2,12, 1,12, 0, 3, 0.00,60.00,Saturday
7,12.311163101846338
8,7.030275840863708
9,2.001775102408389
2,12, 1,12, 0, 4, 0.00,60.00,Saturday
7,12.272649953716357
8,6.980447747655236
9,1.9051841212890788
2,12, 1,12, 0, 5, 0.00,60.00,Saturday
7,12.240200677714747
8,6.9359897721018319
9,1.8063902045097569
2,12, 1,12, 0, 6, 0.00,60.00,Saturday
7,12.20727172102917
8,6.890148807292536
9,1.6996842012527285
2,12, 1,12, 0, 7, 0.00,60.00,Saturday
7,12.176081077881666
8,6.847540262905681
9,1.5949282271956234
2,12, 1,12, 0, 8, 0.00,60.00,Saturday
7,12.14978941253033
8,6.809065559099711
9,1.4909552849994446
2,12, 1,12, 0, 9, 0.00,60.00,Saturday
7,12.179600540035441
8,6.824231880252448
9,1.4420175790649364
2,12, 1,12, 0,10, 0.00,60.00,Saturday
7,12.492550956850565
8,7.1135035635960979
9,1.6873199676189295
2,12, 1,12, 0,11, 0.00,60.00,Saturday
7,12.82495637105636
8,7.44376327183158
9,1.972805054781999
2,12, 1,12, 0,12, 0.00,60.00,Saturday
7,13.143417853326156
8,7.751141337024492
9,2.274919447645615
2,12, 1,12, 0,13, 0.00,60.00,Saturday
7,13.498226859242545
8,8.089691032433525
9,2.6727694636104575
2,12, 1,12, 0,14, 0.00,60.00,Saturday
7,13.7445573464741
8,8.339368508940789
9,3.0423995008338706
2,12, 1,12, 0,15, 0.00,60.00,Saturday
7,13.87153100119599
8,8.479116706903192
9,3.369986696392328
2,12, 1,12, 0,16, 0.00,60.00,Saturday
7,13.860843121829939
8,8.476706519145206
9,3.5978104728274715
2,12, 1,12, 0,17, 0.00,60.00,Saturday
7,13.648515185643964
8,8.268546131645929
9,3.6316098360730098
2,12, 1,12, 0,18, 0.00,60.00,Saturday
7,13.365930835163417
8,8.013889934101908
9,3.605873472202944
2,12, 1,12, 0,19, 0.00,60.00,Saturday
7,13.224110339284087
8,7.89878875490029
9,3.6929072161103737
2,12, 1,12, 0,20, 0.00,60.00,Saturday
7,13.1734637949562
8,7.871162075790097
9,3.834067081257392
2,12, 1,12, 0,21, 0.00,60.00,Saturday
7,13.129510249149316
8,7.849546101011775
9,3.9382163846464559
2,12, 1,12, 0,22, 0.00,60.00,Saturday
7,13.070319598986789
8,7.819364643122487