Program Version,EnergyPlus, Version 8.9.0-40101eaafd, YMD=2026.03.21 11:11
1,5,Environment Title[],Latitude[deg],Longitude[deg],Time Zone[],Elevation[m]
2,8,Day of Simulation[],Month[],Day of Month[],DST Indicator[1=yes 0=no],Hour[],StartMinute[],EndMinute[],DayType
3,5,Cumulative Day of Simulation[],Month[],Day of Month[],DST Indicator[1=yes 0=no],DayType  ! When Daily Report Variables Requested
4,2,Cumulative Days of Simulation[],Month[]  ! When Monthly Report Variables Requested
5,1,Cumulative Days of Simulation[] ! When Run Period Report Variables Requested
6,1,Calendar Year of Simulation[] ! When Annual Report Variables Requested
7,1,Environment,Site Outdoor Air Drybulb Temperature [C] !Hourly
8,1,BLOCK BALCONY_F1 STOREY 0,Zone Mean Air Temperature [C] !Hourly
9,1,BLOCK ROOM_3_F1 STOREY 0,Zone Mean Air Temperature [C] !Hourly
10,1,BLOCK LIVING_1_F1 STOREY 0,Zone Mean Air Temperature [C] !Hourly
11,1,BLOCK ROOM_1_F1 STOREY 0,Zone Mean Air Temperature [C] !Hourly
12,1,BLOCK ROOM_2_F1 STOREY 0,Zone Mean Air Temperature [C] !Hourly
13,1,BLOCK STORAGE_F1 STOREY 0,Zone Mean Air Temperature [C] !Hourly
14,1,BLOCK LIVING_2_F1 STOREY 0,Zone Mean Air Temperature [C] !Hourly
15,1,BLOCK BATHROOM_F1 STOREY 0,Zone Mean Air Temperature [C] !Hourly
368,1,HOT WATER LOOP,Plant Supply Side Heating Demand Rate [W] !Hourly
End of Data Dictionary
1,INCH'ON - KOR IWEC Data WMO#=471120,  37.48, 126.55,   9.00,  70.00
2,1, 1, 1, 0, 1, 0.00,60.00,Tuesday
7,-4.7
8,9.39422802742627
9,18.668155740704856
10,18.700957051300784
11,18.55122941590394
12,18.64297211012395
13,10.538005158503568
14,18.60427753026222
15,10.44014049471729
368,2492.529526468647
2,1, 1, 1, 0, 2, 0.00,60.00,Tuesday
7,-5.3
8,8.398250651978755
9,18.66170405283756
10,18.676694063131614
11,19.34601698310709
12,18.628363202816776
13,10.398958525042561
14,18.60248080045424
15,10.351487457007208
368,2317.712062936923
2,1, 1, 1, 0, 3, 0.00,60.00,Tuesday
7,-5.7
8,7.598570028582252
9,18.62196904403372
10,18.651309951621223
11,19.021760265851265
12,18.612379145166338
13,10.286209391028372
14,18.578812640202825
15,10.286591723055981
368,1971.608073126893
2,1, 1, 1, 0, 4, 0.00,60.00,Tuesday
7,-6.1
8,6.871015099448729
9,18.60518489189654
10,18.632926447695348
11,18.315924269896489
12,18.59414024572601
13,10.158358715372782
14,18.571616907893515
15,10.20018355488932
368,2902.5145060219616
2,1, 1, 1, 0, 5, 0.00,60.00,Tuesday
7,-6.5
8,6.231979422104116
9,18.58746549047295
10,18.610133259432279
11,18.658033245271775
12,18.580387554662253
13,10.031128874732442
14,18.559654939350474
15,10.111200122124714
368,2978.923960249478
2,1, 1, 1, 0, 6, 0.00,60.00,Tuesday
7,-6.8
8,5.645327570280475
9,18.57814790087418
10,18.594737525898393
11,19.7619351369773
12,18.574760015170257
13,9.879757620515685
14,18.553820547351447
15,9.97932021428812
368,2641.1596328079027
2,1, 1, 1, 0, 7, 0.00,60.00,Tuesday
7,-6.6
8,5.207002472316805
9,18.5617874135839
10,18.587883589952918
11,19.290518434360199
12,18.563006822344009
13,9.772115042180051
14,18.543920218043327
15,9.901142155756365
368,2217.4481874028656
2,1, 1, 1, 0, 8, 0.00,60.00,Tuesday
7,-6.6
8,4.871564242027673
9,20.749560366033216
10,21.072975377975074
11,21.015069009874709
12,20.588345520145006
13,9.641186402229412
14,20.56459705536308
15,9.78908783211451
368,9319.824815893255
2,1, 1, 1, 0, 9, 0.00,60.00,Tuesday
7,-6.6
8,5.187071885583865
9,22.168285859682937
10,22.025258350362159
11,22.366200505350638
12,22.048037033269247
13,9.56149674362607
14,22.022446199984917
15,9.680943534482772
368,3763.259085556585
2,1, 1, 1, 0,10, 0.00,60.00,Tuesday
7,-5.0
8,8.997273402129423
9,22.760489995566624
10,22.227277653084383
11,23.47716447354817
12,22.619033942895283
13,9.616621637592333
14,22.17961917158308
15,9.681909260782643
368,2474.3754038411407
2,1, 1, 1, 0,11, 0.00,60.00,Tuesday
7,-3.3
8,14.714007460282267
9,23.31222340900658
10,22.36749754173009
11,24.093927254852909
12,22.57742185693193
13,9.753546389567376
14,22.251867600075238
15,9.735331218462126
368,1926.8721333065782
2,1, 1, 1, 0,12, 0.00,60.00,Tuesday
7,-1.7
8,20.759139913071949
9,24.176307064115176
10,22.485957863843486
11,24.641789484029464
12,22.35222221197717
13,9.910370867998502
14,22.274871886337765
15,9.817343974647397
368,1941.719979228135
2,1, 1, 1, 0,13, 0.00,60.00,Tuesday
7,-0.9
8,26.024365724861548
9,25.171943045811635
10,22.56685575462965
11,25.655442713638075
12,22.43286410888671
13,10.089815598365194
14,22.305940575105404
15,9.921222813897455
368,1777.1937828406074
2,1, 1, 1, 0,14, 0.00,60.00,Tuesday
7,-0.2
8,29.68355731461395
9,26.017134297182098
10,22.64108044790055
11,26.55472915671007
12,22.41272922216169
13,10.284403165389554
14,22.326369428540028
15,10.037231170883045
368,1693.2160273046882
2,1, 1, 1, 0,15, 0.00,60.00,Tuesday
7,0.6
8,31.804165960451987
9,26.418669610531233
10,22.697529591488036
11,27.301246719131457
12,22.456600434954628
13,10.502964997518385
14,22.3512280932167
15,10.165112724545434
368,1581.697272616443
2,1, 1, 1, 0,16, 0.00,60.00,Tuesday
7,0.0
8,30.226400287425905
9,25.44872121407964
10,22.661272519311603
11,26.34896345763351
12,22.466683767762264
13,10.715542799022764
14,22.357438556340996
15,10.290283161444246
368,1602.6823150452385
2,1, 1, 1, 0,17, 0.00,60.00,Tuesday
7,-0.6
8,25.138632373042517
9,23.64597103535298
10,22.623740554421255
11,23.683901177321578
12,22.433767810151058
13,10.865851165434267
14,22.333134195431577
15,10.397025954675258
368,1705.6144076224427
2,1, 1, 1, 0,18, 0.00,60.00,Tuesday
7,-1.2
8,20.850156117486625
9,22.042184993177874
10,22.01263107685387
11,21.336994865815293
12,21.584041857454655
13,10.950180422556637
14,21.332195654890147
15,10.482213417428178
368,0.0
2,1, 1, 1, 0,19, 0.00,60.00,Tuesday
7,-1.3
8,18.778469117682254
9,20.909154781788723
10,21.19223183421817
11,19.915428661533278
12,20.482673149775505
13,10.997851640119638
14,19.969512549123036
15,10.55388069047936
368,0.0
2,1, 1, 1, 0,20, 0.00,60.00,Tuesday
7,-1.5
8,16.81750581465059
9,19.871310437260033
10,20.406815881248489
11,19.186028516465595
12,19.48363544271393
13,11.010206014776547
14,18.908820790720236
15,10.609198913467683
368,304.81854365228966
2,1, 1, 1, 0,21, 0.00,60.00,Tuesday
7,-1.6
8,14.679714721419725
9,18.93799958508265
10,19.474575173110485
11,19.387802166541925
12,19.1085328747355
13,10.976026179704416
14,18.614381854758017
15,10.649685881705063
368,976.7096380333927
2,1, 1, 1, 0,22, 0.00,60.00,Tuesday
7,-1.6
8,13.022378733946429
9,18.778926670621624
10,18.818443828820088
11,19.062111624389848
12,18.972390607906485
13,10.901557305528688
14,18.709061474112525
15,10.632823008734722
368,1083.9288083313438
2,1, 1, 1, 0,23, 0.00,60.00,Tuesday
7,-1.5
8,11.7163860283426
9,18.687615142088846
10,18.73253064771004
11,19.161744254122529
12,18.614148248404644
13,10.804275791166477
14,18.63597470984041
15,10.593614473575825
368,1876.7013004723717
2,1, 1, 1, 0,24, 0.00,60.00,Tuesday
7,-1.5
8,10.652968220390495
9,18.701746704935208
10,18.727463825058327
11,18.84909290748267
12,18.644897364616619
13,10.69650504485352
14,18.621167427960907
15,10.537668685172815
368,2019.8559714349326
2,2, 1, 2, 0, 1, 0.00,60.00,Wednesday
7,-1.4
8,9.753393491033222
9,18.690351473051586
10,18.705764973799597
11,19.93640826071239
12,18.664015183956417
13,10.58264216488866
14,18.621149277828736
15,10.458539276689006
368,2145.9865377736564
2,2, 1, 2, 0, 2, 0.00,60.00,Wednesday
7,-1.3
8,9.043464448003544
9,18.664225957012726
10,18.680730060746439
11,19.911976269100685
12,18.631638771035346
13,10.503500029158865
14,18.610496188364789
15,10.409621296894917
368,1835.6977349677675
2,2, 1, 2, 0, 3, 0.00,60.00,Wednesday
7,-1.2
8,8.419535076339895
9,18.652030476229478
10,18.66525275115888
11,18.619935808347035
12,18.63544400937914
13,10.428189466992033
14,18.6039362701789
15,10.35417042610629
368,2340.027443891781
2,2, 1, 2, 0, 4, 0.00,60.00,Wednesday
7,-1.1
8,7.942344578762144
9,18.645608081454868
10,18.66114993349111
11,18.567606111239475
12,18.633572230209255
13,10.374284978166385
14,18.604755988343489
15,10.315085198468129
368,2616.31856657182
2,2, 1, 2, 0, 5, 0.00,60.00,Wednesday
7,-0.9
8,7.52563827828418
9,18.642966620194643
10,18.644690773195
11,18.59510710861767
12,18.631730887268377
13,10.31137843105095
14,18.603717820948739
15,10.261154105505384
368,2478.390202372594
2,2, 1, 2, 0, 6, 0.00,60.00,Wednesday
7,-0.8
8,7.218849947197452
9,18.634813116264973
10,18.659592700691144
11,18.705780856392609
12,18.628551725008188
13,10.272628860529086
14,18.604942864491855
15,10.238366583220927
368,2758.5608919113574
2,2, 1, 2, 0, 7, 0.00,60.00,Wednesday
7,-0.3
8,6.980210585636058
9,18.644476917492704
10,19.055128904376678
11,19.670873145774679
12,18.63445305146476
13,10.240221596133523
14,18.60555467785951
15,10.223934582418977
368,2388.7128300257564
2,2, 1, 2, 0, 8, 0.00,60.00,Wednesday
7,0.3
8,6.919740649915641
9,20.92821868362269
10,21.434037542331035
11,21.935046885227476
12,20.762178382698708
13,10.230835405017557
14,20.743008990070199
15,10.221381806628079
368,8136.495795620998
2,2, 1, 2, 0, 9, 0.00,60.00,Wednesday
7,0.8
8,7.031369388874961
9,22.33936676997472
10,22.224591193596586
11,22.30615450535713
12,22.154008800278473
13,10.264801678021993
14,22.186989593426849
15,10.245821823434632
368,4171.50014564092
2,2, 1, 2, 0,10, 0.00,60.00,Wednesday
7,1.3
8,7.377416009962699
9,22.495149531510984
10,22.338864583454524
11,22.398474644657875
12,22.421470450921363
13,10.374017108644948
14,22.402541965969275
15,10.32073902420804
368,3669.377452944838
2,2, 1, 2, 0,11, 0.00,60.00,Wednesday
7,1.9
8,7.981652029120162
9,22.529595055896594
10,22.34371753641964
11,22.461021236800094
12,22.454525387414308
13,10.57557246865005
14,22.442319528042494
15,10.48205745187092
368,3248.337154804727
2,2, 1, 2, 0,12, 0.00,60.00,Wednesday
7,2.4
8,8.67030619419498
9,22.447255359408446
10,22.40702986239878
11,22.550757170417194
12,22.40527752734039
13,10.7881010388427
14,22.353083334899745
15,10.636771178432701
368,3238.847409983356
2,2, 1, 2, 0,13, 0.00,60.00,Wednesday
7,3.3
8,9.823413211680018
9,22.575013324111425
10,22.46400424152154
11,22.646281860887144
12,22.483042501147069
13,11.073193546874546
14,22.43233469852395
15,10.849446770081203
368,2823.323564046285
2,2, 1, 2, 0,14, 0.00,60.00,Wednesday
7,4.1
8,11.423523744345835
9,22.684618719440765
10,22.500287056222488
11,22.71993282947856
12,22.5376361594684
13,11.379776324747798
14,22.487347284047475
15,11.088048208489637
368,2492.8887337523565
2,2, 1, 2, 0,15, 0.00,60.00,Wednesday
7,5.0
8,13.39701498679788
9,22.75566802202358
10,22.548437769251
11,22.837673715890277
12,22.5472221020216
13,11.663441532631455
14,22.494668400427274
15,11.325589372891958
368,2175.476916490185
2,2, 1, 2, 0,16, 0.00,60.00,Wednesday
7,4.8
8,13.475301052451418
9,22.551661928865579
10,22.54182687214028
11,22.85665649107839
12,22.521596120165876
13,11.86007032004445
14,22.476125208493924
15,11.517235908911563
368,2579.660528676697
2,2, 1, 2, 0,17, 0.00,60.00,Wednesday
7,4.7
8,12.349469868123052
9,22.52849181023428
10,22.543367541359065
11,22.610879581397488
12,22.50263289304324
13,12.00225802745279
14,22.462690537347539
15,11.690349294772954
368,2767.571253877539
2,2, 1, 2, 0,18, 0.00,60.00,Wednesday
7,4.5
8,11.361063472495419
9,21.77235370096588
10,21.796654151030727
11,21.6095562169286
12,21.758114061059716
13,12.126646403048876
14,21.63433901846842
15,11.893854829046405
368,0.0
2,2, 1, 2, 0,19, 0.00,60.00,Wednesday
7,4.6
8,10.9285364220626
9,20.691098585862809
10,20.86458005502577
11,20.25333559363826
12,20.772152276067176
13,12.219797937750635
14,20.49453955566657
15,11.995523139953365
368,0.0
2,2, 1, 2, 0,20, 0.00,60.00,Wednesday
7,4.7
8,10.506781256297213
9,19.70852571079196
10,20.11538991037026
11,19.041217527830218
12,19.927082497926976
13,12.306291668275728
14,19.483855874134379
15,12.104078895461772
368,79.34409201519205
2,2, 1, 2, 0,21, 0.00,60.00,Wednesday
7,4.8
8,10.041010726057659
9,19.128790661478168
10,19.28779927670129
11,19.927977784936276
12,19.033302838479359
13,12.380811590523738
14,19.2548007412785
15,12.23148326029012
368,687.9533779642088
2,2, 1, 2, 0,22, 0.00,60.00,Wednesday
7,4.9
8,9.699231961202682
9,18.934596585639324
10,18.814755845004407
11,20.19542054124061
12,18.729429958751358
13,12.410276948874916
14,19.24537793026093
15,12.276793163018914
368,490.90284224910888
2,2, 1, 2, 0,23, 0.00,60.00,Wednesday
7,4.9
8,9.398630011859666
9,18.706028830843875
10,18.779874848894424
11,18.967925784894164
12,18.793271733532806
13,12.432781147687568
14,18.75018855148385
15,12.31751629199146
368,1371.0358677345598
2,2, 1, 2, 0,24, 0.00,60.00,Wednesday
7,5.0
8,9.181207825562585
9,18.75782236051503
10,18.809186974300027
11,19.111164512899778
12,18.794845862470035
13,12.444914312292252
14,18.722041329094908
15,12.343171134404898
368,1766.5619443563667
2,3, 1, 3, 0, 1, 0.00,60.00,Thursday
7,3.0
8,8.768572008893285
9,18.75111256283686
10,18.78898089120888
11,18.880803014248948
12,18.737208972280287
13,12.424212925550885
14,18.76706470561109
15,12.348454413677868
368,1389.7852779196937
2,3, 1, 3, 0, 2, 0.00,60.00,Thursday
7,1.0
8,8.246154366200422
9,18.71320691740008
10,18.75662041899958
11,19.02084607620354
12,18.740157195431999
13,12.384094975821448
14,18.710628994381826
15,12.344210524057108
368,1928.810163679284
2,3, 1, 3, 0, 3, 0.00,60.00,Thursday
7,-1.0
8,7.674479317190508
9,18.705230987349297
10,18.744096810203869
11,18.896145319919893
12,18.721064036114407
13,12.325560556149818
14,18.70999516402742
15,12.323981938510919
368,1749.2533647749347
2,3, 1, 3, 0, 4, 0.00,60.00,Thursday
7,-2.1
8,7.159064889210084
9,18.69401623327692
10,18.728778046162579
11,19.132193398009023
12,18.70931535164246
13,12.249663118531672
14,18.704171701530016
15,12.287843647805199
368,1921.972720717492
2,3, 1, 3, 0, 5, 0.00,60.00,Thursday
7,-3.3
8,6.677549736403861
9,18.665823036783423
10,18.717422216790287
11,18.89383045596375
12,18.687548115318426
13,12.157516276782099
14,18.677911284836826
15,12.233445700742529
368,1876.04180791344
2,3, 1, 3, 0, 6, 0.00,60.00,Thursday
7,-4.4
8,6.172108687522425
9,18.65423856435556
10,18.69178277524111
11,19.158913648841457
12,18.674215676389765
13,12.029676994235193
14,18.669255817659939
15,12.147551475264749
368,2047.3811836187674
2,3, 1, 3, 0, 7, 0.00,60.00,Thursday
7,-5.1
8,5.74269782707891
9,18.632586933014048
10,18.67821730002104
11,18.895593333033206
12,18.655325481521876
13,11.897143517452499
14,18.651926714514084
15,12.051233974213627
368,2001.8594621101665
2,3, 1, 3, 0, 8, 0.00,60.00,Thursday
7,-5.7
8,5.416432966913524
9,20.898256512283689
10,21.221032814704477
11,21.20830274745071
12,20.78943192433966
13,11.728647030194779
14,20.80774651591016
15,11.917755290947995
368,9063.356827611187
2,3, 1, 3, 0, 9, 0.00,60.00,Thursday
7,-6.4
8,5.427115041435377
9,22.37118616833648
10,22.140077740924565
11,22.389462331152335
12,22.146290865119508
13,11.585374228328462
14,22.199672897506969
15,11.763938510257106
368,3279.1061313752803
2,3, 1, 3, 0,10, 0.00,60.00,Thursday
7,-6.5
8,7.59533735120584
9,22.684543259606956
10,22.29066890100062
11,22.681259872049226
12,22.53465380050628
13,11.572995108126314
14,22.293370603719099
15,11.71999170975798
368,2925.1695186422494
2,3, 1, 3, 0,11, 0.00,60.00,Thursday
7,-6.5
8,12.169723386511349
9,22.965672234724999
10,22.423173008167834
11,23.488836606194128
12,22.614176604248397
13,11.628048611854779
14,22.365013134045328
15,11.712672179894284
368,1843.1048044593626
2,3, 1, 3, 0,12, 0.00,60.00,Thursday
7,-6.6
8,18.23196699926639
9,23.652358005125185
10,22.524059365932339
11,24.342962981682935
12,22.44330728557094
13,11.707739327001225
14,22.379113961935528
15,11.730020678606751
368,1759.7860041974764
2,3, 1, 3, 0,13, 0.00,60.00,Thursday
7,-6.4
8,21.82878694489113
9,24.086253767737074
10,22.567808302315297
11,24.712434556943437
12,22.491602764944927
13,11.820859374725507
14,22.408243450667969
15,11.766948575505925
368,1657.8848774115913
2,3, 1, 3, 0,14, 0.00,60.00,Thursday
7,-6.3
8,23.2391354273637
9,24.00565049425053
10,22.59742094295899
11,24.52945421258324
12,22.46726911207924
13,11.930237200807959
14,22.41592089386615
15,11.802254893569396
368,1638.5922913070533
2,3, 1, 3, 0,15, 0.00,60.00,Thursday
7,-6.1
8,23.026568438172043
9,23.392832289321797
10,22.601280978553857
11,23.86737268062319
12,22.467399725765515
13,11.999838000625556
14,22.40366106878661
15,11.819269483607578
368,1645.2837328844412
2,3, 1, 3, 0,16, 0.00,60.00,Thursday
7,-6.4
8,21.70529440128195
9,22.6963096737771
10,22.597485555210797
11,23.043974596800063
12,22.447948503483674
13,12.01375914471663
14,22.386999551058424
15,11.812153971051746
368,2115.457060051598
2,3, 1, 3, 0,17, 0.00,60.00,Thursday
7,-6.7
8,18.573997695094258
9,22.45651630317327
10,22.541353935524414
11,22.399378112986058
12,22.40587528300618
13,11.942953796645627
14,22.354462449636669
15,11.767594747017356
368,3231.219980348126
2,3, 1, 3, 0,18, 0.00,60.00,Thursday
7,-7.0
8,15.507560900431918
9,21.638491722281338
10,21.75573628045426
11,21.108524005936265
12,21.493689618373709
13,11.819308062347116
14,21.339642040422658
15,11.696077731190116
368,0.0
2,3, 1, 3, 0,19, 0.00,60.00,Thursday
7,-7.5
8,13.741857982963272
9,20.371290541480844
10,20.786566283578627
11,19.375545524583836
12,20.3045570591511
13,11.698243251795134
14,19.9597310816546
15,11.621417391086674
368,0.0
2,3, 1, 3, 0,20, 0.00,60.00,Thursday
7,-7.9
8,12.146627527552866
9,19.158528735537624
10,19.864472911521767
11,18.558241648225985
12,19.185923214150028
13,11.542642466980109
14,18.876936778190559
15,11.524636329090097
368,898.9652261511978
2,3, 1, 3, 0,21, 0.00,60.00,Thursday
7,-8.4
8,10.236872771884098
9,18.618209452265487
10,18.86967534942342
11,18.571349023660589
12,18.647903591754564
13,11.31437812080144
14,18.613234619705428
15,11.357666234473403
368,2592.864548647007
2,3, 1, 3, 0,22, 0.00,60.00,Thursday
7,-8.5
8,8.925640249662992
9,18.707091758714044
10,18.7145650847131
11,18.596670598497025
12,18.701193281695838
13,11.075982965963322
14,18.685050863221055
15,11.193221191263716
368,2272.272170025539
2,3, 1, 3, 0,23, 0.00,60.00,Thursday
7,-8.7
8,7.811805862294391
9,18.609181861706234
10,18.651722067218519
11,18.55157306200873
12,18.620862370942349
13,10.806179575963345
14,18.587282968198794
15,10.988848991467532
368,2662.2394303637116
2,3, 1, 3, 0,24, 0.00,60.00,Thursday
7,-8.8
8,6.849694833378109
9,18.588872455809815
10,18.648684749383759
11,18.84600814764114
12,18.60107914644142
13,10.499429286370989
14,18.577995872438998
15,10.701969472657164
368,2761.4409952600317
2,4, 1, 4, 0, 1, 0.00,60.00,Friday
7,-9.0
8,6.056844533762992
9,18.57173291627855
10,18.591822930737899
11,18.890565092200455
12,18.582781620647056
13,10.25149810271062
14,18.564244213794696
15,10.512762351506172
368,2527.9200234874256
2,4, 1, 4, 0, 2, 0.00,60.00,Friday
7,-9.2
8,5.339919458939386
9,18.53016963169949
10,18.569732782736325
11,19.0288667909878
12,18.54911909903575
13,9.990379347885755
14,18.531401930702388
15,10.284922674676786
368,2642.3332838529777
2,4, 1, 4, 0, 3, 0.00,60.00,Friday
7,-9.4
8,4.71932558911234
9,18.51404048702518
10,18.562531539988979
11,18.943065903687577
12,18.534487539616888
13,9.749577083149278
14,18.51869804070327
15,10.068920731795798
368,2697.55228053844
2,4, 1, 4, 0, 4, 0.00,60.00,Friday
7,-9.5
8,4.1678135238107949
9,18.500246103846103
10,18.543113413907336
11,19.029345711908378
12,18.52165548782645
13,9.514673697974342
14,18.50645783626388
15,9.845782629830755
368,2787.602884723805
2,4, 1, 4, 0, 5, 0.00,60.00,Friday
7,-9.6
8,3.692107597051219
9,18.482313092244874
10,18.524939827481697
11,18.9153559394292
12,18.50675785268203
13,9.298371288282885
14,18.49136324105829
15,9.639869765411535
368,2768.8580435745725
2,4, 1, 4, 0, 6, 0.00,60.00,Friday
7,-9.7
8,3.2599962145037857
9,18.470767370809985
10,18.51299503017536
11,18.37784785989398
12,18.495385754497585
13,9.083676146289792
14,18.481278989449366
15,9.427381270494685
368,3214.035020323897
2,4, 1, 4, 0, 7, 0.00,60.00,Friday
7,-9.8
8,2.8889756331182117
9,18.45970401670407
10,18.50424293954446
11,18.381188282291498
12,18.487027105001915
13,8.901215055778554
14,18.47156589275817
15,9.25457493285268
368,3439.649251931759
2,4, 1, 4, 0, 8, 0.00,60.00,Friday
7,-9.8
8,2.628344290835914
9,20.511908311839365
10,20.92135379756179
11,20.89037854165545
12,20.37302782549855
13,8.698010879380947
14,20.3574160482533
15,9.055239505213534
368,9302.359582694555
2,4, 1, 4, 0, 9, 0.00,60.00,Friday
7,-9.9
8,3.021176441336531
9,22.033040038725557
10,21.972278603924616
11,22.15026480216537
12,21.897568684969778
13,8.56602718700126
14,21.855878564870439
15,8.904436874010603
368,5034.75648976768
2,4, 1, 4, 0,10, 0.00,60.00,Friday
7,-7.7
8,7.022214032395264
9,22.758904698274223
10,22.1901539919619
11,22.75465470682829
12,22.6143680799362
13,8.573134672639489
14,22.165801402923028
15,8.833339593951969
368,2768.498184280174
2,4, 1, 4, 0,11, 0.00,60.00,Friday
7,-5.4
8,12.978493654950585
9,23.012255855179814
10,22.257609239025585
11,23.391508980054789
12,22.4983457763819
13,8.6651887155643
14,22.14735423129346
15,8.831874795023005
368,2183.069084768458
2,4, 1, 4, 0,12, 0.00,60.00,Friday
7,-3.2
8,19.086582467608215
9,23.537061301183479
10,22.39788506447277
11,24.115168900777709
12,22.276340954139518
13,8.7972833563547
14,22.181923264603989
15,8.876782961878059
368,2148.5753713303466
2,4, 1, 4, 0,13, 0.00,60.00,Friday
7,-2.2
8,24.497725643150713
9,24.37007843987079
10,22.490166776187203
11,25.000276570947105
12,22.3588944362196
13,8.961660816430952
14,22.22248338084224
15,8.957550728256118
368,1969.4893890275885
2,4, 1, 4, 0,14, 0.00,60.00,Friday
7,-1.2
8,28.39472019535234
9,25.127368389555295
10,22.5734289375328
11,25.8064331532574
12,22.354675894490265
13,9.166590956801365
14,22.258290600435346
15,9.071332036136445
368,1857.1090600713815
2,4, 1, 4, 0,15, 0.00,60.00,Friday
7,-0.2
8,30.532534035730085
9,25.469033076087738
10,22.634895139284706
11,26.4772993898926
12,22.402407840459419
13,9.40801688304098
14,22.292518865704385
15,9.211128763584919
368,1736.5072119284087
2,4, 1, 4, 0,16, 0.00,60.00,Friday
7,-0.8
8,30.524031347683356
9,24.91071482929152
10,22.65105036556396
11,26.30437085920866
12,22.41351943914298
13,9.6238623962242
14,22.2979959532179
15,9.336626553457294
368,1706.083719740081
2,4, 1, 4, 0,17, 0.00,60.00,Friday
7,-1.4
8,26.625366922740136
9,23.36729753323979
10,22.599786965997546
11,24.14584376733846
12,22.387369878656384
13,9.819885258817797
14,22.28198218976722
15,9.471883390147078
368,1797.3633208411024
2,4, 1, 4, 0,18, 0.00,60.00,Friday
7,-2.0
8,21.927020544633764
9,21.711135114553849
10,21.950274582895515
11,21.54445375614505
12,21.46728992385794
13,9.936892663141054
14,21.210835194442465
15,9.575964834121214
368,0.0
2,4, 1, 4, 0,19, 0.00,60.00,Friday
7,-1.9
8,19.417142092220919
9,20.530449818165417
10,21.100245754090783
11,19.970754227765285
12,20.303520802332299
13,10.026587962023655
14,19.77404282128155
15,9.6679631676702
368,0.0
2,4, 1, 4, 0,20, 0.00,60.00,Friday
7,-1.7
8,17.27443528566262
9,19.46966286084163
10,20.289117907483364
11,18.777030847202295
12,19.258809276104814
13,10.088748477424723
14,18.779688678267964
15,9.747111527592696
368,618.5274321280398
2,4, 1, 4, 0,21, 0.00,60.00,Friday
7,-1.6
8,15.02475103544719
9,19.216551897427757
10,19.338481213226215
11,19.28618451200222
12,19.159966064398714
13,10.123476591498163
14,18.585940158503559
15,9.828080801335022
368,931.2034514624319
2,4, 1, 4, 0,22, 0.00,60.00,Friday
7,-1.4
8,13.373200616839183
9,19.260390316538655
10,18.77128400724574
11,18.956474662490736
12,19.228866258499953
13,10.113560936319973
14,18.677261584427659
15,9.85398019484577
368,814.2999337270887
2,4, 1, 4, 0,23, 0.00,60.00,Friday
7,-1.1
8,12.07650250512271
9,18.707260457433664
10,18.74759106465572
11,19.21939411068178
12,18.675394863299784
13,10.096231097950219
14,18.627626065131105
15,9.87604691899846
368,1812.9644317511702
2,4, 1, 4, 0,24, 0.00,60.00,Friday
7,-0.9
8,11.05395012310963
9,18.659433715073744
10,18.73876478219556
11,19.055051400776308
12,18.627205574811069
13,10.0784905587084
14,18.617050571147595
15,9.89287611596252
368,1887.0680498619563
2,5, 1, 5, 0, 1, 0.00,60.00,Saturday
7,-0.9
8,10.188213115545667
9,18.701185928922987
10,18.718184558687129
11,19.78590201736057
12,18.66885589253398
13,10.065851225865364
14,18.618916706227475
15,9.914309780296737
368,2049.603947914591
2,5, 1, 5, 0, 2, 0.00,60.00,Saturday
7,-1.0
8,9.479696676312923
9,18.672390361290544
10,18.698971859203433
11,19.65043565709658
12,18.646649713054328
13,10.06378927111956
14,18.612900757796909
15,9.926591223206773
368,1791.1628242910795
2,5, 1, 5, 0, 3, 0.00,60.00,Saturday
7,-1.0
8,8.87338859885646
9,18.66967142364317
10,18.68572789055538
11,18.593763895535944
12,18.64888680344865
13,10.070911663058589
14,18.611811360269028
15,9.945481735380735
368,2355.967792844167
2,5, 1, 5, 0, 4, 0.00,60.00,Saturday
7,-0.9
8,8.347893416047546
9,18.65823805718293
10,18.681496956928624
11,18.574736253807506
12,18.64168076508679
13,10.075009519541045
14,18.608602080201913
15,9.962918516619139
368,2468.0092820056216
2,5, 1, 5, 0, 5, 0.00,60.00,Saturday
7,-0.7
8,7.877069659403473
9,18.658090282903009
10,18.663325545522036
11,18.723028104211705
12,18.642798674267725
13,10.079527987495507
14,18.6103185360578
15,9.992092197395842
368,2601.9075903099197
2,5, 1, 5, 0, 6, 0.00,60.00,Saturday
7,-0.6
8,7.490628574014129
9,18.64179728726495
10,18.6819049532222
11,19.679340277572125
12,18.636167213170407
13,10.08233334831288
14,18.608867018154844
15,10.014972241347018
368,2525.0174749083917
2,5, 1, 5, 0, 7, 0.00,60.00,Saturday
7,-0.3
8,7.203741316308876
9,18.658211775646174
10,19.162500541123195
11,19.307335477929525
12,18.64083691261444
13,10.090629959077744
14,18.609918378978514
15,10.03634559561686
368,1800.1511816983002
2,5, 1, 5, 0, 8, 0.00,60.00,Saturday
7,-0.1
8,7.067770558634171
9,20.930524892857276
10,21.503448034773574
11,21.252974116996059
12,20.761388872504655
13,10.102198525870014
14,20.737751187428189
15,10.05287494033066
368,8810.75780527748
2,5, 1, 5, 0, 9, 0.00,60.00,Saturday
7,0.2
8,7.099359388983411
9,22.39112488250716
10,22.176958153800354
11,22.445535631342808
12,22.116984408135964
13,10.144828513126
14,22.141007445266426
15,10.095309315681592
368,3280.3812472612003
2,5, 1, 5, 0,10, 0.00,60.00,Saturday
7,0.2
8,7.340886332473628
9,22.507742941975669
10,22.298706769058528
11,22.357645212726678
12,22.36168245574559
13,10.246989538433722
14,22.32155065430544
15,10.179899730520248
368,3646.4010919090906
2,5, 1, 5, 0,11, 0.00,60.00,Saturday
7,0.1
8,7.813452717245891
9,22.34144380171368
10,22.372109658451927
11,22.398611258484658
12,22.341113521320339
13,10.40533342747706
14,22.267203173567148
15,10.29323429355945
368,3568.023745206422
2,5, 1, 5, 0,12, 0.00,60.00,Saturday
7,0.1
8,8.229783010055339
9,22.438780234476036
10,22.384341011066767
11,22.397782747261915
12,22.38208839839629
13,10.600021400414859
14,22.347503246135714
15,10.481015970774813
368,3459.70730258678
2,5, 1, 5, 0,13, 0.00,60.00,Saturday
7,0.5
8,8.840225609430146
9,22.45147094642963
10,22.42083331565651
11,22.58201857858464
12,22.4143346321276
13,10.819551723873304
14,22.376264650950288
15,10.66750942620136
368,3110.7178348725233
2,5, 1, 5, 0,14, 0.00,60.00,Saturday
7,0.8
8,9.257765327868932
9,22.55544783119563
10,22.450004565818689
11,23.148339680659974
12,22.48047078143236
13,11.031988099297206
14,22.42598998193732
15,10.859169176348644
368,2890.5252071570512
2,5, 1, 5, 0,15, 0.00,60.00,Saturday
7,1.2
8,9.363594691781856
9,22.40777113708708
10,22.473118485486269
11,22.921127486199774
12,22.40471788484934
13,11.174790841657904
14,22.375166183364713
15,10.982973955796569
368,2760.350566291196
2,5, 1, 5, 0,16, 0.00,60.00,Saturday
7,0.8
8,9.224220195976658
9,22.509377017500719
10,22.49418519563777
11,22.459043845506586
12,22.47785171048354
13,11.325815277880772
14,22.43404957728564
15,11.127988406213174
368,3019.0118753389315
2,5, 1, 5, 0,17, 0.00,60.00,Saturday
7,0.5
8,8.858852317873918
9,22.48354722814304
10,22.4820345683407
11,22.44052180583776
12,22.456943362283107
13,11.43297939480689
14,22.417367646366367
15,11.252272736890962
368,3143.9272911666803
2,5, 1, 5, 0,18, 0.00,60.00,Saturday
7,0.1
8,8.459400128475727
9,21.507871289448177
10,21.647366014108309
11,21.156532021148967
12,21.573062428328016
13,11.502944497464867
14,21.46320433756486
15,11.364885312379292
368,0.0
2,5, 1, 5, 0,19, 0.00,60.00,Saturday
7,0.3
8,8.205914519716562
9,20.28553542821685
10,20.592914070707779
11,19.800504008429379
12,20.50785412963249
13,11.583400799696296
14,20.22084247347533
15,11.490414512563336
368,0.0
2,5, 1, 5, 0,20, 0.00,60.00,Saturday
7,0.4
8,7.965323070658194
9,19.108196050362854
10,19.73942466193352
11,19.410061957256795
12,19.54681065641209
13,11.625114722918866
14,19.075316551487114
15,11.564616475544492
368,269.254346329626
2,5, 1, 5, 0,21, 0.00,60.00,Saturday
7,0.6